# vtk DataFile Version 1.0
vtk Salome
ASCII
DATASET UNSTRUCTURED_GRID
POINTS 2069 float
5.308139e-17 1.229008e+00 -4.440892e-16
4.232627e-17 1.053435e+00 -4.718448e-16
4.300997e-17 1.002398e+00 -3.431864e-02
5.356409e-17 1.169464e+00 -3.720161e-02
3.157115e-17 8.778627e-01 -5.273559e-16
3.245584e-17 8.353313e-01 -3.143567e-02
2.081603e-17 7.022902e-01 -5.551115e-16
2.190172e-17 6.682650e-01 -2.855271e-02
1.006090e-17 5.267176e-01 -6.106227e-16
1.134760e-17 5.011988e-01 -2.566974e-02
-6.942172e-19 3.511451e-01 -6.383782e-16
7.934768e-19 3.341325e-01 -2.278678e-02
-1.144934e-17 1.755725e-01 -6.938894e-16
-9.760645e-18 1.670663e-01 -1.990381e-02
-2.220446e-17 5.001555e-16 -7.216450e-16
-2.031477e-17 5.221357e-16 -1.702084e-02
4.302112e-17 9.485991e-01 -6.410282e-02
5.326215e-17 1.106699e+00 -6.911301e-02
3.278009e-17 7.904993e-01 -5.909263e-02
2.253906e-17 6.323994e-01 -5.408244e-02
1.229802e-17 4.742996e-01 -4.907225e-02
2.056991e-18 3.161997e-01 -4.406206e-02
-8.184042e-18 1.580999e-01 -3.905187e-02
-1.842507e-17 5.439372e-16 -3.404168e-02
4.237784e-17 8.878886e-01 -9.180616e-02
5.219671e-17 1.035870e+00 -9.859676e-02
3.255897e-17 7.399071e-01 -8.501555e-02
2.274010e-17 5.919257e-01 -7.822495e-02
1.292123e-17 4.439443e-01 -7.143434e-02
3.102358e-18 2.959629e-01 -6.464374e-02
-6.716512e-18 1.479814e-01 -5.785313e-02
-1.653538e-17 5.652910e-16 -5.106253e-02
4.113731e-17 8.244582e-01 -1.156307e-01
5.043448e-17 9.618679e-01 -1.235552e-01
3.184014e-17 6.870485e-01 -1.077061e-01
2.254298e-17 5.496388e-01 -9.978157e-02
1.324581e-17 4.122291e-01 -9.185702e-02
3.948645e-18 2.748194e-01 -8.393247e-02
-5.348522e-18 1.374097e-01 -7.600792e-02
-1.464569e-17 5.864686e-16 -6.808337e-02
3.940795e-17 7.601075e-01 -1.355600e-01
4.810194e-17 8.867921e-01 -1.439693e-01
3.071396e-17 6.334229e-01 -1.271507e-01
2.201997e-17 5.067383e-01 -1.187414e-01
1.332598e-17 3.800537e-01 -1.103321e-01
4.631987e-18 2.533692e-01 -1.019228e-01
-4.062004e-18 1.266846e-01 -9.351351e-02
-1.275600e-17 6.075867e-16 -8.510421e-02
3.728207e-17 6.950375e-01 -1.523147e-01
4.530680e-17 8.108771e-01 -1.606796e-01
2.925734e-17 5.791979e-01 -1.439497e-01
2.123261e-17 4.633583e-01 -1.355848e-01
1.320788e-17 3.475187e-01 -1.272199e-01
5.183156e-18 2.316792e-01 -1.188549e-01
-2.841573e-18 1.158396e-01 -1.104900e-01
-1.086630e-17 6.286582e-16 -1.021251e-01
3.382182e-17 6.061201e-01 -1.702084e-01
4.095490e-17 7.071401e-01 -1.787188e-01
2.668875e-17 5.051001e-01 -1.616980e-01
1.955568e-17 4.040800e-01 -1.531876e-01
1.242261e-17 3.030600e-01 -1.446772e-01
5.289535e-18 2.020400e-01 -1.361667e-01
-1.843537e-18 1.010200e-01 -1.276563e-01
-8.976609e-18 6.481852e-16 -1.191459e-01
-9.749031e-17 -1.229008e+00 -4.440892e-16
-8.673519e-17 -1.053435e+00 -4.718448e-16
-7.979862e-17 -1.002398e+00 -3.431864e-02
-8.971259e-17 -1.169464e+00 -3.720161e-02
-7.598007e-17 -8.778627e-01 -5.273559e-16
-6.988464e-17 -8.353313e-01 -3.143567e-02
-6.522495e-17 -7.022902e-01 -5.551115e-16
-5.997067e-17 -6.682650e-01 -2.855271e-02
-5.446983e-17 -5.267176e-01 -6.106227e-16
-5.005669e-17 -5.011988e-01 -2.566974e-02
-4.371470e-17 -3.511451e-01 -6.383782e-16
-4.014272e-17 -3.341325e-01 -2.278678e-02
-3.295958e-17 -1.755725e-01 -6.938894e-16
-3.022874e-17 -1.670663e-01 -1.990381e-02
-7.319636e-17 -9.485991e-01 -6.410282e-02
-8.232490e-17 -1.106699e+00 -6.911301e-02
-6.406781e-17 -7.904993e-01 -5.909263e-02
-5.493926e-17 -6.323994e-01 -5.408244e-02
-4.581071e-17 -4.742996e-01 -4.907225e-02
-3.668217e-17 -3.161997e-01 -4.406206e-02
-2.755362e-17 -1.580999e-01 -3.905187e-02
-6.640170e-17 -8.878886e-01 -9.180616e-02
-7.471275e-17 -1.035870e+00 -9.859676e-02
-5.809064e-17 -7.399071e-01 -8.501555e-02
-4.977959e-17 -5.919257e-01 -7.822495e-02
-4.146854e-17 -4.439443e-01 -7.143434e-02
-3.315749e-17 -2.959629e-01 -6.464374e-02
-2.484643e-17 -1.479814e-01 -5.785313e-02
-5.987106e-17 -8.244582e-01 -1.156307e-01
-6.740863e-17 -9.618679e-01 -1.235552e-01
-5.233350e-17 -6.870485e-01 -1.077061e-01
-4.479594e-17 -5.496388e-01 -9.978157e-02
-3.725838e-17 -4.122291e-01 -9.185702e-02
-2.972081e-17 -2.748194e-01 -8.393247e-02
-2.218325e-17 -1.374097e-01 -7.600792e-02
-5.371650e-17 -7.601075e-01 -1.355600e-01
-6.054325e-17 -8.867921e-01 -1.439693e-01
-4.688975e-17 -6.334229e-01 -1.271507e-01
-4.006300e-17 -5.067383e-01 -1.187414e-01
-3.323625e-17 -3.800537e-01 -1.103321e-01
-2.640950e-17 -2.533692e-01 -1.019228e-01
-1.958275e-17 -1.266846e-01 -9.351351e-02
-4.787034e-17 -6.950375e-01 -1.523147e-01
-5.403768e-17 -8.108771e-01 -1.606796e-01
-4.170300e-17 -5.791979e-01 -1.439497e-01
-3.553566e-17 -4.633583e-01 -1.355848e-01
-2.936832e-17 -3.475187e-01 -1.272199e-01
-2.320098e-17 -2.316792e-01 -1.188549e-01
-1.703364e-17 -1.158396e-01 -1.104900e-01
-4.043688e-17 -6.061201e-01 -1.702084e-01
-4.568026e-17 -7.071401e-01 -1.787188e-01
-3.519350e-17 -5.051001e-01 -1.616980e-01
-2.995012e-17 -4.040800e-01 -1.531876e-01
-2.470675e-17 -3.030600e-01 -1.446772e-01
-1.946337e-17 -2.020400e-01 -1.361667e-01
-1.421999e-17 -1.010200e-01 -1.276563e-01
1.705902e-18 7.222001e-16 -2.153654e-01
7.441958e-18 9.403349e-02 -2.151475e-01
1.446417e-18 7.086412e-16 -2.130282e-01
-4.078540e-18 -9.403349e-02 -2.151475e-01
1.310077e-17 1.880411e-01 -2.142481e-01
6.905168e-18 9.401129e-02 -2.103248e-01
1.864525e-17 2.820849e-01 -2.122989e-01
1.226591e-17 1.880537e-01 -2.067215e-01
2.410720e-17 3.774515e-01 -2.088765e-01
1.755592e-17 2.832298e-01 -2.018555e-01
3.015288e-17 4.876441e-01 -2.025315e-01
2.334628e-17 3.911140e-01 -1.944844e-01
3.580665e-17 5.976540e-01 -1.927574e-01
2.880071e-17 4.988415e-01 -1.841740e-01
-4.612611e-18 -9.401129e-02 -2.103248e-01
-9.937052e-18 -1.880411e-01 -2.142481e-01
6.566570e-19 7.314310e-16 -2.059146e-01
5.844256e-18 9.403720e-02 -2.007546e-01
1.097291e-17 1.890192e-01 -1.945424e-01
1.651851e-17 2.945912e-01 -1.862425e-01
2.178418e-17 4.000327e-01 -1.754933e-01
-1.077345e-17 -1.880537e-01 -2.067215e-01
-1.591434e-17 -2.820849e-01 -2.122989e-01
-5.676697e-18 -9.403720e-02 -2.007546e-01
-6.452777e-19 7.192155e-16 -1.941879e-01
4.338982e-18 9.479300e-02 -1.867793e-01
9.656805e-18 1.980581e-01 -1.777007e-01
1.475068e-17 3.012187e-01 -1.666625e-01
-1.714393e-17 -2.832298e-01 -2.018555e-01
-2.213621e-17 -3.774515e-01 -2.088765e-01
-1.218475e-17 -1.890192e-01 -1.945424e-01
-7.274568e-18 -9.479300e-02 -1.867793e-01
-2.399759e-18 6.957386e-16 -1.783849e-01
2.725223e-18 1.011471e-01 -1.687379e-01
7.682244e-18 2.022158e-01 -1.576214e-01
-2.457099e-17 -3.911140e-01 -1.944844e-01
-2.959076e-17 -4.876441e-01 -2.025315e-01
-1.957329e-17 -2.945912e-01 -1.862425e-01
-1.460825e-17 -1.980581e-01 -1.777007e-01
-9.666794e-18 -1.011471e-01 -1.687379e-01
-4.558556e-18 7.195203e-16 -1.589402e-01
4.377089e-19 1.010948e-01 -1.481627e-01
-3.231478e-17 -4.988415e-01 -1.841740e-01
-3.741484e-17 -5.976540e-01 -1.927574e-01
-2.722577e-17 -4.000327e-01 -1.754933e-01
-2.215309e-17 -3.012187e-01 -1.666625e-01
-1.709219e-17 -2.022158e-01 -1.576214e-01
-1.194791e-17 -1.010948e-01 -1.481627e-01
-6.859614e-18 6.864499e-16 -1.382141e-01
6.505000e+00 7.530244e-21 -6.731320e-16
6.442076e+00 -3.186893e-02 1.602374e-05
6.442101e+00 -3.109505e-02 -2.285876e-02
6.505000e+00 9.445793e-20 -2.264187e-02
6.378838e+00 -6.228714e-02 6.632668e-06
6.378368e+00 -6.093446e-02 -2.320663e-02
6.316923e+00 -9.105634e-02 -1.530361e-05
6.315395e+00 -8.935869e-02 -2.365156e-02
6.256172e+00 -1.186202e-01 -2.236777e-05
6.253104e+00 -1.167704e-01 -2.415618e-02
6.195581e+00 -1.456504e-01 -1.060856e-05
6.190617e+00 -1.437707e-01 -2.471079e-02
6.133999e+00 -1.727835e-01 8.453657e-06
6.126910e+00 -1.709264e-01 -2.532316e-02
6.070527e+00 -2.004896e-01 2.129957e-05
6.061187e+00 -1.986530e-01 -2.600400e-02
6.004672e+00 -2.290345e-01 2.075463e-05
5.993022e+00 -2.271816e-01 -2.675791e-02
5.936336e+00 -2.585005e-01 8.212302e-06
5.922357e+00 -2.565771e-01 -2.758075e-02
5.865719e+00 -2.888354e-01 -8.674885e-06
5.849410e+00 -2.867830e-01 -2.846178e-02
5.793191e+00 -3.199095e-01 -2.058690e-05
5.774556e+00 -3.176732e-01 -2.938819e-02
5.719167e+00 -3.515662e-01 -2.114925e-05
5.698211e+00 -3.490978e-01 -3.034977e-02
5.644017e+00 -3.836593e-01 -9.806049e-06
5.620744e+00 -3.809165e-01 -3.134189e-02
5.568017e+00 -4.160720e-01 7.927312e-06
5.542438e+00 -4.130160e-01 -3.236592e-02
5.491341e+00 -4.487204e-01 2.274291e-05
5.463476e+00 -4.453136e-01 -3.342717e-02
5.414089e+00 -4.815454e-01 2.550148e-05
5.383969e+00 -4.777494e-01 -3.453116e-02
5.336322e+00 -5.144973e-01 1.163995e-05
5.303996e+00 -5.102728e-01 -3.567935e-02
5.258112e+00 -5.475203e-01 -1.521698e-05
5.223640e+00 -5.428289e-01 -3.686561e-02
5.179576e+00 -5.805411e-01 -4.139541e-05
5.143024e+00 -5.753483e-01 -3.807439e-02
5.100884e+00 -6.134644e-01 -4.355277e-05
5.062319e+00 -6.077434e-01 -3.928096e-02
5.022256e+00 -6.461779e-01 8.736071e-06
4.981742e+00 -6.399124e-01 -4.045388e-02
4.943934e+00 -6.784677e-01 4.222056e-05
4.901523e+00 -6.717492e-01 -4.155915e-02
4.866132e+00 -7.102371e-01 2.420150e-05
4.821869e+00 -7.031582e-01 -4.256503e-02
4.788991e+00 -7.414343e-01 -2.150270e-06
4.742920e+00 -7.340673e-01 -4.344666e-02
4.712552e+00 -7.720239e-01 -1.898795e-05
4.664716e+00 -7.644382e-01 -4.418910e-02
4.636733e+00 -8.020123e-01 -1.996329e-05
4.587187e+00 -7.942694e-01 -4.478820e-02
4.561344e+00 -8.314410e-01 -8.761984e-06
4.510159e+00 -8.235894e-01 -4.524870e-02
4.486127e+00 -8.603697e-01 5.057442e-06
4.433397e+00 -8.524434e-01 -4.557990e-02
4.410814e+00 -8.888555e-01 1.199691e-05
4.356657e+00 -8.806564e-01 -4.612952e-02
4.335178e+00 -9.169348e-01 8.469941e-06
4.279733e+00 -9.082640e-01 -4.690854e-02
4.259046e+00 -9.446220e-01 -2.408774e-07
4.202461e+00 -9.354259e-01 -4.768015e-02
4.182203e+00 -9.719415e-01 -3.574632e-06
4.124642e+00 -9.621601e-01 -4.843146e-02
4.104116e+00 -9.990110e-01 -1.097813e-08
4.045781e+00 -9.885682e-01 -4.915820e-02
4.024303e+00 -1.025887e+00 -2.442642e-05
3.965430e+00 -1.014692e+00 -4.988747e-02
3.942994e+00 -1.052415e+00 -3.528403e-05
3.883793e+00 -1.040391e+00 -5.057665e-02
3.859968e+00 -1.078567e+00 -1.516371e-05
[...]
CELL_DATA 1995

SCALARS thickness0 float
LOOKUP_TABLE my_table
-7.680438e+03
-7.086667e+03
-6.808301e+03
-6.715036e+03
-6.780710e+03
-7.060796e+03
-7.896938e+03
-7.358386e+03
-6.898291e+03
-6.689860e+03
-6.637807e+03
-6.728688e+03
-7.022730e+03
-7.848446e+03
-7.132884e+03
-6.767168e+03
-6.610655e+03
-6.589779e+03
-6.698963e+03
-7.000336e+03
-7.803077e+03
-6.971460e+03
-6.679997e+03
-6.564203e+03
-6.567354e+03
-6.689396e+03
-6.992231e+03
-7.759733e+03
-6.863326e+03
-6.630663e+03
-6.546827e+03
-6.567918e+03
-6.697717e+03
-6.995938e+03
-7.715788e+03
-6.795105e+03
-6.610845e+03
-6.553193e+03
-6.587839e+03
-6.721355e+03
-7.009451e+03
-7.669735e+03
-6.749177e+03
-6.615015e+03
-6.583679e+03
-6.631229e+03
-6.766698e+03
-7.040297e+03
-7.627836e+03
-1.237866e+04
-1.308177e+04
-1.331525e+04
-1.311831e+04
-1.262567e+04
-1.192738e+04
-1.078171e+04
-1.224209e+04
-1.284237e+04
-1.299400e+04
-1.276231e+04
-1.229893e+04
-1.165408e+04
-1.058119e+04
-1.205726e+04
-1.256776e+04
-1.263713e+04
-1.237353e+04
-1.194149e+04
-1.135068e+04
-1.035760e+04
-1.184866e+04
-1.226041e+04
-1.223147e+04
-1.194709e+04
-1.155063e+04
-1.101514e+04
-1.010909e+04
-1.162920e+04
-1.192007e+04
-1.177782e+04
-1.149239e+04
-1.113242e+04
-1.064986e+04
-9.833890e+03
-1.138970e+04
-1.149636e+04
-1.127112e+04
-1.100101e+04
-1.067689e+04
-1.024417e+04
-9.520380e+03
-1.101881e+04
-1.081929e+04
-1.060374e+04
-1.037520e+04
-1.010138e+04
-9.731170e+03
-9.118146e+03
-7.580708e+03
-7.310397e+03
-7.106964e+03
-6.956715e+03
-6.841905e+03
-6.765658e+03
-6.735653e+03
-7.854633e+03
-7.548619e+03
-7.258614e+03
-7.034150e+03
-6.858931e+03
-6.729973e+03
-6.650463e+03
-8.123190e+03
-7.853768e+03
-7.539817e+03
-7.220640e+03
-6.966518e+03
-6.779077e+03
-6.653199e+03
-8.400151e+03
-8.172928e+03
-7.919358e+03
-7.575479e+03
-7.196937e+03
-6.917750e+03
-6.730909e+03
-8.731393e+03
-8.542362e+03
-8.347167e+03
-8.087993e+03
-7.670965e+03
-7.206208e+03
-6.905043e+03
-9.179339e+03
-9.012754e+03
-8.857881e+03
-8.662843e+03
-8.369127e+03
-7.836526e+03
-7.252013e+03
-9.846029e+03
-9.683979e+03
-9.540236e+03
-9.370524e+03
-9.141104e+03
-8.788423e+03
-8.076830e+03
2.264516e+03
1.966472e+03
1.646527e+03
1.330180e+03
1.021664e+03
7.188943e+02
4.191746e+02
1.213110e+02
-1.739033e+02
-4.642352e+02
-7.464978e+02
-1.017394e+03
-1.273935e+03
-1.513599e+03
-1.734479e+03
-1.935097e+03
-2.114211e+03
-2.270733e+03
-2.403654e+03
-2.512045e+03
-2.595220e+03
-2.652852e+03
-2.684872e+03
-2.691605e+03
-2.673558e+03
-2.631412e+03
-2.565787e+03
-2.477137e+03
-2.365445e+03
-2.230654e+03
-2.073201e+03
-1.893483e+03
-1.691192e+03
-1.465531e+03
-1.216793e+03
-9.459067e+02
-6.534600e+02
-3.403846e+02
-8.297399e+00
3.405315e+02
7.031039e+02
1.075674e+03
1.453483e+03
1.830280e+03
2.197816e+03
2.545327e+03
2.859222e+03
3.123142e+03
3.318608e+03
3.426245e+03
3.427398e+03
3.306189e+03
3.051500e+03
2.658419e+03
2.128925e+03
1.471130e+03
6.978635e+02
-1.771651e+02
-1.139577e+03
-2.178254e+03
-3.285970e+03
-4.459521e+03
-5.700689e+03
-7.019726e+03
-8.450602e+03
-1.017237e+04
2.257521e+03
1.963360e+03
1.646102e+03
1.330656e+03
1.021822e+03
7.184255e+02
4.186109e+02
1.218255e+02
-1.707079e+02
-4.566036e+02
-7.326130e+02
-9.954985e+02
-1.242349e+03
-1.470786e+03
-1.678963e+03
-1.865504e+03
-2.029318e+03
-2.169472e+03
-2.285224e+03
-2.375965e+03
-2.441421e+03
-2.481607e+03
-2.496880e+03
-2.487886e+03
-2.455435e+03
-2.400472e+03
-2.323787e+03
-2.225994e+03
-2.107203e+03
-1.967615e+03
-1.807862e+03
-1.628600e+03
-1.429862e+03
-1.211254e+03
-9.733179e+02
-7.172488e+02
-4.438401e+02
-1.542463e+02
1.494635e+02
4.646683e+02
7.884858e+02
1.117292e+03
1.446678e+03
1.770933e+03
2.082685e+03
2.372413e+03
2.628256e+03
2.836123e+03
2.980180e+03
3.043951e+03
3.011711e+03
2.870180e+03
2.610141e+03
2.227785e+03
1.724959e+03
1.108816e+03
3.903361e+02
-4.189073e+02
-1.306844e+03
-2.264544e+03
-3.286733e+03
-4.372476e+03
-5.526699e+03
-6.765519e+03
-8.138443e+03
-9.899838e+03
2.248895e+03
1.956704e+03
1.641044e+03
1.326196e+03
1.017366e+03
7.141226e+02
4.153332e+02
1.209517e+02
-1.675816e+02
-4.478088e+02
-7.164186e+02
-9.701540e+02
-1.206214e+03
-1.422386e+03
-1.616941e+03
-1.788678e+03
-1.936693e+03
-2.060234e+03
-2.158833e+03
-2.232198e+03
-2.280344e+03
-2.303614e+03
-2.302686e+03
-2.278485e+03
-2.232132e+03
-2.164777e+03
-2.077467e+03
-1.971101e+03
-1.846372e+03
-1.703920e+03
-1.544456e+03
-1.368620e+03
-1.176750e+03
-9.687849e+02
-7.455402e+02
-5.083206e+02
-2.580773e+02
3.855262e+00
2.754124e+02
5.541298e+02
8.372949e+02
1.121618e+03
1.403142e+03
1.676844e+03
1.936288e+03
2.173250e+03
2.377515e+03
2.536961e+03
2.638057e+03
2.666655e+03
2.609225e+03
2.454379e+03
2.194267e+03
1.825660e+03
1.350343e+03
7.745576e+02
1.076266e+02
-6.404767e+02
-1.459832e+03
-2.343714e+03
-3.289042e+03
-4.297761e+03
-5.378845e+03
-6.555530e+03
-7.892966e+03
-9.682848e+03
2.240158e+03
1.947785e+03
1.632254e+03
1.317283e+03
1.008349e+03
7.056534e+02
4.086710e+02
1.177968e+02
-1.653234e+02
-4.381848e+02
-6.976013e+02
-9.405853e+02
-1.164652e+03
-1.367886e+03
-1.548926e+03
-1.706431e+03
-1.839047e+03
-1.946287e+03
-2.028315e+03
-2.085180e+03
-2.117192e+03
-2.125006e+03
-2.109578e+03
-2.072096e+03
-2.013925e+03
-1.936413e+03
-1.840816e+03
-1.728274e+03
-1.599745e+03
-1.456137e+03
-1.298398e+03
-1.127481e+03
-9.440170e+02
-7.483427e+02
-5.415341e+02
-3.250750e+02
-1.001264e+02
1.319089e+02
3.692800e+02
6.098082e+02
8.509656e+02
1.089834e+03
1.322907e+03
1.545837e+03
1.753095e+03
1.937706e+03
2.091105e+03
2.203175e+03
2.262677e+03
2.257955e+03
2.177897e+03
2.013172e+03
1.757346e+03
1.407740e+03
9.657296e+02
4.362544e+02
-1.737317e+02
-8.563372e+02
-1.604579e+03
-2.414375e+03
-3.285604e+03
-4.223470e+03
-5.241410e+03
-6.369608e+03
-7.685458e+03
-9.496862e+03
2.230276e+03
1.936892e+03
1.620952e+03
1.305550e+03
9.964230e+02
6.944162e+02
3.996543e+02
1.130416e+02
-1.634712e+02
-4.273150e+02
-6.756476e+02
-9.058179e+02
-1.115697e+03
-1.303725e+03
-1.468842e+03
-1.610024e+03
-1.726269e+03
-1.817485e+03
-1.884138e+03
-1.926590e+03
-1.945437e+03
-1.941546e+03
-1.916060e+03
-1.870304e+03
-1.805038e+03
-1.720667e+03
-1.619186e+03
-1.502833e+03
-1.372835e+03
-1.230256e+03
-1.076267e+03
-9.119932e+02
-7.383074e+02
-5.558131e+02
-3.657597e+02
-1.697067e+02
3.106273e+01
2.350948e+02
4.406299e+02
6.456028e+02
8.476695e+02
1.044204e+03
1.232107e+03
1.407609e+03
1.566016e+03
1.701562e+03
1.807204e+03
1.874867e+03
1.895646e+03
1.860362e+03
1.760357e+03
1.588402e+03
1.339412e+03
1.011212e+03
6.044210e+02
1.223072e+02
-4.308048e+02
-1.049775e+03
-1.730874e+03
-2.472886e+03
-3.278653e+03
-4.156332e+03
-5.123074e+03
-6.214003e+03
-7.513512e+03
-9.335646e+03
2.218807e+03
1.924033e+03
1.607629e+03
1.291961e+03
9.829857e+02
6.821509e+02
3.901865e+02
1.084453e+02
-1.608996e+02
-4.152245e+02
-6.518027e+02
-8.681935e+02
-1.062547e+03
-1.233561e+03
-1.380470e+03
-1.502944e+03
-1.600975e+03
-1.674817e+03
-1.724944e+03
-1.752010e+03
-1.756953e+03
-1.740897e+03
-1.705177e+03
-1.651269e+03
-1.580148e+03
-1.492455e+03
-1.390163e+03
-1.275368e+03
-1.149255e+03
-1.012953e+03
-8.676170e+02
-7.143456e+02
-5.540517e+02
-3.874217e+02
-2.156294e+02
-4.012528e+01
1.378853e+02
3.168731e+02
4.944676e+02
6.684152e+02
8.369131e+02
9.975975e+02
1.147748e+03
1.284121e+03
1.402755e+03
1.498812e+03
1.566604e+03
1.599544e+03
1.590550e+03
1.532360e+03
1.418140e+03
1.242183e+03
1.000383e+03
6.907934e+02
3.133819e+02
-1.299023e+02
-6.368041e+02
-1.204348e+03
-1.831240e+03
-2.518639e+03
-3.271661e+03
-4.100761e+03
-5.025758e+03
-6.084809e+03
-7.365535e+03
-9.184193e+03
2.205683e+03
1.909321e+03
1.592515e+03
1.276792e+03
9.682800e+02
6.689850e+02
3.802005e+02
1.036756e+02
-1.582405e+02
-4.029246e+02
-6.278197e+02
-8.307522e+02
-1.010120e+03
-1.164952e+03
-1.294811e+03
-1.399697e+03
-1.479971e+03
-1.536237e+03
-1.569333e+03
-1.580311e+03
-1.570474e+03
-1.541244e+03
-1.494270e+03
-1.431251e+03
-1.353880e+03
-1.263775e+03
-1.162413e+03
-1.051109e+03
-9.310792e+02
-8.034514e+02
-6.693538e+02
-5.298433e+02
-3.858382e+02
-2.380332e+02
-8.754179e+01
6.437086e+01
2.166059e+02
3.676993e+02
5.156075e+02
6.585466e+02
7.949322e+02
9.227109e+02
1.039547e+03
1.142619e+03
1.228565e+03
1.293291e+03
1.331996e+03
1.339223e+03
1.309157e+03
1.235808e+03
1.113703e+03
9.381017e+02
7.055909e+02
4.143664e+02
6.406644e+01
-3.447137e+02
-8.108466e+02
-1.333391e+03
-1.912848e+03
-2.552222e+03
-3.258296e+03
-4.043396e+03
-4.928889e+03
-5.954176e+03
-7.205729e+03
-8.991368e+03
2.190543e+03
1.892587e+03
1.575614e+03
1.260112e+03
9.523527e+02
6.548707e+02
3.694937e+02
9.830156e+01
-1.562138e+02
-3.914706e+02
-6.051213e+02
-7.952536e+02
-9.605800e+02
-1.100432e+03
-1.214721e+03
-1.303771e+03
-1.368258e+03
-1.409178e+03
-1.427703e+03
-1.425220e+03
-1.403312e+03
-1.363681e+03
-1.308190e+03
-1.238700e+03
-1.157008e+03
-1.064865e+03
-9.638145e+02
-8.552588e+02
-7.405157e+02
-6.207642e+02
-4.971563e+02
-3.707754e+02
-2.425652e+02
-1.132890e+02
1.599965e+01
1.441634e+02
2.702008e+02
3.930424e+02
5.114758e+02
6.241489e+02
7.295660e+02
8.260599e+02
9.116754e+02
9.841130e+02
1.040576e+03
1.077738e+03
1.091668e+03
1.077962e+03
1.031875e+03
9.485768e+02
8.234661e+02
6.525894e+02
4.329079e+02
1.624298e+02
-1.598388e+02
-5.344465e+02
-9.616475e+02
-1.442103e+03
-1.977819e+03
-2.573283e+03
-3.236482e+03
-3.980656e+03
-4.827425e+03
-5.814380e+03
-7.018615e+03
-8.682245e+03
2.172793e+03
1.873206e+03
1.556057e+03
1.241076e+03
9.345685e+02
6.394802e+02
3.580744e+02
9.266373e+01
-1.542432e+02
-3.802190e+02
-5.831410e+02
-7.614437e+02
-9.141176e+02
-1.040816e+03
-1.141719e+03
-1.217264e+03
-1.268190e+03
-1.295881e+03
-1.302045e+03
-1.288366e+03
-1.256662e+03
-1.208830e+03
-1.146888e+03
-1.072807e+03
-9.884655e+02
-8.956366e+02
-7.959202e+02
-6.907832e+02
-5.815242e+02
-4.693453e+02
-3.553903e+02
-2.406967e+02
-1.261857e+02
-1.261783e+01
9.904731e+01
2.078147e+02
3.128165e+02
4.131277e+02
5.077381e+02
5.955333e+02
6.752881e+02
7.456639e+02
8.050824e+02
8.517159e+02
8.833183e+02
8.972498e+02
8.904645e+02
8.594346e+02
8.004002e+02
7.095467e+02
5.830280e+02
4.174021e+02
2.097642e+02
-4.218108e+01
-3.400475e+02
-6.854462e+02
-1.079868e+03
-1.525227e+03
-2.024684e+03
-2.583777e+03
-3.211219e+03
-3.920167e+03
-4.731289e+03
-5.678593e+03
-6.826036e+03
-8.330099e+03
2.151582e+03
1.851462e+03
1.535147e+03
1.221322e+03
9.164462e+02
6.240261e+02
3.467781e+02
8.728325e+01
-1.519119e+02
-3.685511e+02
-5.607988e+02
-7.273914e+02
-8.677007e+02
-9.817173e+02
-1.069941e+03
-1.133163e+03
-1.172404e+03
-1.189273e+03
-1.185687e+03
-1.163467e+03
-1.124594e+03
-1.071085e+03
-1.005029e+03
-9.283936e+02
-8.431030e+02
-7.509248e+02
-6.534568e+02
-5.521611e+02
-4.483259e+02
-3.431478e+02
-2.377210e+02
-1.330750e+02
-3.005767e+01
7.056695e+01
1.679303e+02
2.611576e+02
3.494775e+02
4.320950e+02
5.081817e+02
5.768563e+02
6.370612e+02
6.877249e+02
7.275333e+02
7.549568e+02
7.681874e+02
7.650644e+02
7.431027e+02
6.994800e+02
6.310833e+02
5.346945e+02
4.071628e+02
2.453549e+02
4.645993e+01
-1.918931e+02
-4.718029e+02
-7.955862e+02
-1.165474e+03
-1.584238e+03
-2.055943e+03
-2.586615e+03
-3.185028e+03
-3.864054e+03
-4.642898e+03
-5.551798e+03
-6.644509e+03
-8.030958e+03
2.125793e+03
1.826865e+03
1.512887e+03
1.201142e+03
8.983130e+02
6.085412e+02
3.351122e+02
8.094724e+01
-1.513113e+02
-3.594952e+02
-5.419694e+02
-6.977958e+02
-8.266788e+02
-9.289193e+02
-1.005356e+03
-1.057200e+03
-1.086003e+03
-1.093499e+03
-1.081580e+03
-1.052274e+03
-1.007639e+03
-9.498157e+02
-8.808434e+02
-8.027395e+02
-7.173511e+02
-6.264312e+02
-5.315400e+02
-4.340946e+02
-3.353412e+02
-2.364055e+02
-1.383416e+02
-4.210072e+01
5.151035e+01
1.417690e+02
2.278985e+02
3.091251e+02
3.847645e+02
4.541108e+02
5.164423e+02
5.709749e+02
6.168258e+02
6.530240e+02
6.784551e+02
6.917984e+02
6.915061e+02
6.757796e+02
6.424761e+02
5.893113e+02
5.135719e+02
4.125827e+02
2.835824e+02
1.237763e+02
-6.951353e+01
-2.986761e+02
-5.662927e+02
-8.748704e+02
-1.227180e+03
-1.626659e+03
-2.077750e+03
-2.586654e+03
-3.162131e+03
-3.816463e+03
-4.567450e+03
-5.442394e+03
-6.488587e+03
-7.791071e+03
2.095946e+03
1.800077e+03
1.489993e+03
1.181174e+03
8.806044e+02
5.931727e+02
3.227988e+02
7.282906e+01
-1.539638e+02
-3.554196e+02
-5.300790e+02
-6.772235e+02
-7.968126e+02
-8.894306e+02
-9.561562e+02
-9.984760e+02
-1.018172e+03
-1.017199e+03
-9.976818e+02
-9.617656e+02
-9.116764e+02
-8.495809e+02
-7.775779e+02
-6.976711e+02
-6.117114e+02
-5.213850e+02
-4.282335e+02
-3.335992e+02
-2.386898e+02
-1.445998e+02
-5.227199e+01
3.741181e+01
1.236910e+02
2.058976e+02
2.833379e+02
3.553603e+02
4.213203e+02
4.805893e+02
5.325175e+02
5.763550e+02
6.113473e+02
6.365933e+02
6.510822e+02
6.536860e+02
6.429705e+02
6.174073e+02
5.751761e+02
5.142105e+02
4.323011e+02
3.271326e+02
1.961201e+02
3.682923e+01
-1.532795e+02
-3.765584e+02
-6.358012e+02
-9.337356e+02
-1.273488e+03
-1.658783e+03
-2.094285e+03
-2.586331e+03
-3.143420e+03
-3.777238e+03
-4.504297e+03
-5.349480e+03
-6.355232e+03
-7.589111e+03
2.062592e+03
1.771845e+03
1.467274e+03
1.162130e+03
8.638792e+02
5.782766e+02
3.100203e+02
6.295162e+01
-1.599049e+02
-3.563627e+02
-5.250480e+02
-6.653976e+02
-7.775600e+02
-8.623370e+02
-9.210044e+02
-9.552865e+02
-9.671577e+02
-9.587716e+02
-9.324210e+02
-8.904211e+02
-8.350862e+02
-7.686687e+02
-6.933182e+02
-6.110189e+02
-5.236364e+02
-4.328916e+02
-3.402311e+02
-2.470134e+02
-1.544044e+02
-6.345541e+01
2.492409e+01
1.099137e+02
1.908012e+02
2.669442e+02
3.377213e+02
4.025441e+02
4.608437e+02
5.120185e+02
5.555155e+02
5.906276e+02
6.166725e+02
6.328541e+02
6.381875e+02
6.317317e+02
6.121908e+02
5.782210e+02
5.282579e+02
4.604964e+02
3.730647e+02
2.638845e+02
1.306427e+02
-2.882644e+01
-2.169588e+02
-4.361577e+02
-6.892885e+02
-9.793958e+02
-1.309616e+03
-1.683930e+03
-2.107199e+03
-2.585660e+03
-3.127476e+03
-3.743562e+03
-4.449097e+03
-5.266427e+03
-6.232454e+03
-7.396730e+03
2.025281e+03
1.742611e+03
1.445349e+03
1.144584e+03
8.485596e+02
5.641288e+02
2.968960e+02
5.132734e+01
-1.692010e+02
-3.623629e+02
-5.267998e+02
-6.620319e+02
-7.683470e+02
-8.467064e+02
-8.985787e+02
-9.258428e+02
-9.306917e+02
-9.154676e+02
-8.826119e+02
-8.346168e+02
-7.738953e+02
-7.027770e+02
-6.234949e+02
-5.380688e+02
-4.483776e+02
-3.561152e+02
-2.627539e+02
-1.696491e+02
-7.794548e+01
1.133814e+01
9.732372e+01
1.792208e+02
2.563512e+02
3.281082e+02
3.939283e+02
4.532551e+02
5.055695e+02
5.503320e+02
5.869902e+02
6.149516e+02
6.335281e+02
6.419928e+02
6.394932e+02
6.251248e+02
5.977866e+02
5.562486e+02
4.992177e+02
4.251357e+02
3.323216e+02
2.190323e+02
8.323379e+01
-7.722124e+01
-2.646914e+02
-4.814628e+02
-7.304724e+02
-1.014935e+03
-1.338169e+03
-1.704234e+03
-2.118070e+03
-2.585715e+03
-3.114841e+03
-3.715524e+03
-4.401448e+03
-5.192319e+03
-6.118614e+03
-7.208141e+03
-7.798860e+03
-6.607301e+03
-5.457158e+03
-4.346632e+03
-3.270606e+03
-2.230193e+03
-1.230140e+03
-2.780692e+02
6.155264e+02
1.437780e+03
2.174102e+03
2.810040e+03
3.333004e+03
3.733961e+03
4.008872e+03
4.159479e+03
4.193098e+03
4.121750e+03
3.960886e+03
3.727645e+03
3.439363e+03
3.112172e+03
2.760022e+03
2.394218e+03
2.023361e+03
1.653713e+03
1.289811e+03
9.352338e+02
5.931234e+02
2.665756e+02
-4.142165e+01
-3.286635e+02
-5.949478e+02
-8.411719e+02
-1.624050e+03
-1.769642e+03
-1.893751e+03
-1.995741e+03
-2.074231e+03
-2.127792e+03
-2.082111e+03
-2.005128e+03
-1.902281e+03
-1.774036e+03
-1.621060e+03
-1.444267e+03
-1.244947e+03
-1.024675e+03
-7.853668e+02
-5.292027e+02
-2.583609e+02
2.510263e+01
3.192898e+02
6.223176e+02
9.317693e+02
1.243719e+03
2.291699e+03
-7.420203e+03
-6.314776e+03
-5.240561e+03
-4.209188e+03
-3.213636e+03
-2.253324e+03
-1.331481e+03
-4.540878e+02
3.701117e+02
1.130087e+03
1.813450e+03
2.407739e+03
2.902030e+03
3.288440e+03
3.563297e+03
3.727833e+03
3.788068e+03
3.754051e+03
3.638707e+03
3.456575e+03
3.222379e+03
2.949962e+03
2.651397e+03
2.336638e+03
2.013365e+03
1.687329e+03
1.362776e+03
1.043086e+03
7.313380e+02
4.303337e+02
1.433528e+02
-1.270510e+02
-3.803074e+02
-6.169997e+02
-8.366319e+02
-1.038617e+03
-1.223281e+03
-1.390633e+03
-1.539859e+03
-1.669786e+03
-1.779474e+03
-1.867698e+03
-1.933076e+03
-1.974435e+03
-1.990935e+03
-1.981967e+03
-1.947242e+03
-1.886577e+03
-1.799977e+03
-1.687619e+03
-1.549915e+03
-1.387565e+03
-1.201591e+03
-9.934194e+02
-7.648000e+02
-5.178179e+02
-2.546535e+02
2.255949e+01
3.117805e+02
6.109330e+02
9.174142e+02
1.227195e+03
1.533228e+03
1.823662e+03
2.080507e+03
2.280922e+03
-7.133641e+03
-6.084146e+03
-5.069122e+03
-4.103233e+03
-3.177308e+03
-2.288267e+03
-1.437214e+03
-6.283308e+02
1.316405e+02
8.335779e+02
1.466984e+03
2.021064e+03
2.486225e+03
2.855614e+03
3.125929e+03
3.298156e+03
3.377441e+03
3.372444e+03
3.294336e+03
3.155572e+03
2.968778e+03
2.745789e+03
2.496993e+03
2.230974e+03
1.954421e+03
1.672406e+03
1.388749e+03
1.106511e+03
8.284825e+02
5.572571e+02
2.957875e+02
4.664382e+01
-1.893632e+02
-4.124333e+02
-6.218805e+02
-8.169744e+02
-9.976878e+02
-1.163788e+03
-1.314583e+03
-1.448937e+03
-1.565468e+03
-1.662575e+03
-1.738709e+03
-1.792472e+03
-1.822677e+03
-1.828441e+03
-1.809109e+03
-1.764229e+03
-1.693499e+03
-1.596868e+03
-1.474474e+03
-1.326789e+03
-1.154615e+03
-9.591451e+02
-7.419824e+02
-5.050748e+02
-2.505189e+02
1.942934e+01
3.026034e+02
5.969388e+02
8.997535e+02
1.207022e+03
1.511885e+03
1.802928e+03
2.062816e+03
2.269087e+03
-6.913309e+03
-5.899402e+03
-4.929768e+03
-4.018596e+03
-3.154764e+03
-2.332713e+03
-1.551073e+03
-8.117297e+02
-1.191274e+02
5.201296e+02
1.097900e+03
1.605695e+03
2.035945e+03
2.383086e+03
2.644553e+03
2.821224e+03
2.917325e+03
2.939933e+03
2.898235e+03
2.802429e+03
2.662974e+03
2.489669e+03
2.291198e+03
2.074766e+03
1.846116e+03
1.609633e+03
1.368679e+03
1.125998e+03
8.840722e+02
6.454135e+02
4.124609e+02
1.873278e+02
-2.894882e+01
-2.361566e+02
-4.333539e+02
-6.196207e+02
-7.945919e+02
-9.577197e+02
-1.108124e+03
-1.244517e+03
-1.365349e+03
-1.468891e+03
-1.553421e+03
-1.617336e+03
-1.659216e+03
-1.677906e+03
-1.672450e+03
-1.642115e+03
-1.586317e+03
-1.504714e+03
-1.397015e+03
-1.263202e+03
-1.104303e+03
-9.217206e+02
-7.167588e+02
-4.910136e+02
-2.463678e+02
1.509342e+01
2.912542e+02
5.800169e+02
8.787072e+02
1.183367e+03
1.487382e+03
1.779825e+03
2.043947e+03
2.257448e+03
-6.754291e+03
-5.765533e+03
-4.830007e+03
-3.962055e+03
-3.149646e+03
-2.385422e+03
-1.666001e+03
-9.910510e+02
-3.626832e+02
2.151647e+02
7.371394e+02
1.197480e+03
1.590943e+03
1.913825e+03
2.164384e+03
2.343494e+03
2.454487e+03
2.502852e+03
2.495661e+03
2.440889e+03
2.346722e+03
2.220904e+03
2.070456e+03
1.901292e+03
1.718215e+03
1.524971e+03
1.324540e+03
1.119380e+03
9.117413e+02
7.038799e+02
4.980741e+02
2.963473e+02
9.986964e+01
-9.085667e+01
-2.747331e+02
-4.507032e+02
-6.181678e+02
-7.763652e+02
-9.242460e+02
-1.060410e+03
-1.183203e+03
-1.290812e+03
-1.380250e+03
-1.449698e+03
-1.498948e+03
-1.526748e+03
-1.531974e+03
-1.513697e+03
-1.471160e+03
-1.403735e+03
-1.310817e+03
-1.192065e+03
-1.048130e+03
-8.800537e+02
-6.888231e+02
-4.757193e+02
-2.423210e+02
9.537695e+00
2.779315e+02
5.607207e+02
8.551678e+02
1.157281e+03
1.460614e+03
1.754709e+03
2.023468e+03
2.244798e+03
-6.643913e+03
-5.675254e+03
-4.766290e+03
-3.932397e+03
-3.160769e+03
-2.442550e+03
-1.772809e+03
-1.149469e+03
-5.726430e+02
-4.423208e+01
4.326098e+02
8.543110e+02
1.217448e+03
1.519675e+03
1.760047e+03
1.939523e+03
2.060864e+03
2.128403e+03
2.147634e+03
2.124884e+03
2.066563e+03
1.978914e+03
1.867551e+03
1.737337e+03
1.592288e+03
1.435609e+03
1.269880e+03
1.097302e+03
9.198703e+02
7.387603e+02
5.566310e+02
3.763825e+02
1.992503e+02
2.585528e+01
-1.427794e+02
-3.056207e+02
-4.620101e+02
-6.111432e+02
-7.519700e+02
-8.831536e+02
-1.003164e+03
-1.110279e+03
-1.201744e+03
-1.275764e+03
-1.331782e+03
-1.368397e+03
-1.384312e+03
-1.378355e+03
-1.349505e+03
-1.296822e+03
-1.219624e+03
-1.117419e+03
-9.900234e+02
-8.376707e+02
-6.609871e+02
-4.609877e+02
-2.390710e+02
3.063019e+00
2.635228e+02
5.401516e+02
8.301460e+02
1.129523e+03
1.432038e+03
1.727728e+03
2.001211e+03
2.230741e+03
-6.560112e+03
-5.610491e+03
-4.725292e+03
-3.921032e+03
-3.184483e+03
-2.505764e+03
-1.878595e+03