# vtk DataFile Version 1.0
vtk Salome
ASCII
DATASET UNSTRUCTURED_GRID
POINTS 2693 float
-1.599826e-16 -1.433650e+00 4.499680e-01
-1.599283e-16 -1.433650e+00 4.494790e-01
-1.497556e-16 -1.274355e+00 4.457432e-01
-1.502247e-16 -1.274356e+00 4.499680e-01
-1.598736e-16 -1.433641e+00 4.489901e-01
-1.492861e-16 -1.274348e+00 4.415185e-01
-1.569792e-16 -1.433608e+00 4.229386e-01
-1.462926e-16 -1.274318e+00 4.145716e-01
-1.503067e-16 -1.433791e+00 3.627371e-01
-1.399407e-16 -1.274481e+00 3.572691e-01
-1.436343e-16 -1.433975e+00 3.025357e-01
-1.335889e-16 -1.274644e+00 2.999666e-01
-1.319155e-16 -1.405945e+00 2.124487e-01
-1.227514e-16 -1.249728e+00 2.160991e-01
-1.197822e-16 -1.359697e+00 1.286790e-01
-1.115455e-16 -1.208619e+00 1.378471e-01
-1.077387e-16 -1.296690e+00 5.496478e-02
-1.004193e-16 -1.152614e+00 6.853323e-02
-9.536758e-17 -1.213438e+00 -1.052907e-02
-8.900200e-17 -1.078612e+00 6.526373e-03
-1.395829e-16 -1.115061e+00 4.420074e-01
-1.404667e-16 -1.115061e+00 4.499680e-01
-1.386987e-16 -1.115054e+00 4.340470e-01
-1.356060e-16 -1.115029e+00 4.062045e-01
-1.295747e-16 -1.115171e+00 3.518010e-01
-1.235435e-16 -1.115314e+00 2.973974e-01
-1.135873e-16 -1.093512e+00 2.197495e-01
-1.033087e-16 -1.057542e+00 1.470152e-01
-9.309995e-17 -1.008537e+00 8.210168e-02
-8.263641e-17 -9.437851e-01 2.358182e-02
-1.294102e-16 -9.557666e-01 4.382717e-01
-1.307087e-16 -9.557667e-01 4.499680e-01
-1.281113e-16 -9.557610e-01 4.265754e-01
-1.249194e-16 -9.557388e-01 3.978375e-01
-1.192087e-16 -9.558609e-01 3.463329e-01
-1.134980e-16 -9.559832e-01 2.948283e-01
-1.044232e-16 -9.372964e-01 2.234000e-01
-9.507196e-17 -9.064644e-01 1.561832e-01
-8.578058e-17 -8.644602e-01 9.567013e-02
-7.627083e-17 -8.089587e-01 4.063727e-02
-1.192375e-16 -7.964722e-01 4.345359e-01
-1.209508e-16 -7.964722e-01 4.499680e-01
-1.175239e-16 -7.964675e-01 4.191039e-01
-1.142328e-16 -7.964490e-01 3.894705e-01
-1.088427e-16 -7.965507e-01 3.408648e-01
-1.034526e-16 -7.966526e-01 2.922592e-01
-9.525909e-17 -7.810803e-01 2.270504e-01
-8.683521e-17 -7.553870e-01 1.653513e-01
-7.846122e-17 -7.203835e-01 1.092386e-01
-6.990524e-17 -6.741322e-01 5.769271e-02
-1.090648e-16 -6.371777e-01 4.308002e-01
-1.111928e-16 -6.371778e-01 4.499680e-01
-1.069365e-16 -6.371740e-01 4.116324e-01
-1.035462e-16 -6.371592e-01 3.811034e-01
-9.847669e-17 -6.372406e-01 3.353967e-01
-9.340723e-17 -6.373221e-01 2.896901e-01
-8.609497e-17 -6.248642e-01 2.307009e-01
-7.859846e-17 -6.043096e-01 1.745194e-01
-7.114185e-17 -5.763068e-01 1.228070e-01
-6.353966e-17 -5.393058e-01 7.474816e-02
-9.889203e-17 -4.778833e-01 4.270644e-01
-1.014348e-16 -4.778833e-01 4.499680e-01
-9.634905e-17 -4.778805e-01 4.041608e-01
-9.285956e-17 -4.778694e-01 3.727364e-01
-8.811069e-17 -4.779304e-01 3.299287e-01
-8.336182e-17 -4.779916e-01 2.871209e-01
-7.693086e-17 -4.686482e-01 2.343513e-01
-7.036171e-17 -4.532322e-01 1.836875e-01
-6.382248e-17 -4.322301e-01 1.363755e-01
-5.717407e-17 -4.044793e-01 9.180361e-02
-8.871931e-17 -3.185889e-01 4.233286e-01
-9.167688e-17 -3.185889e-01 4.499680e-01
-8.576164e-17 -3.185870e-01 3.966893e-01
-8.217295e-17 -3.185796e-01 3.643694e-01
-7.774468e-17 -3.186203e-01 3.244606e-01
-7.331641e-17 -3.186611e-01 2.845518e-01
-6.776675e-17 -3.124321e-01 2.380017e-01
-6.212496e-17 -3.021548e-01 1.928556e-01
-5.650312e-17 -2.881534e-01 1.499439e-01
-5.080848e-17 -2.696529e-01 1.088591e-01
-7.854659e-17 -1.592944e-01 4.195929e-01
-8.191891e-17 -1.592944e-01 4.499680e-01
-7.517422e-17 -1.592935e-01 3.892178e-01
-7.148634e-17 -1.592898e-01 3.560023e-01
-6.737867e-17 -1.593101e-01 3.189925e-01
-6.327100e-17 -1.593305e-01 2.819827e-01
-5.860264e-17 -1.562161e-01 2.416522e-01
-5.388820e-17 -1.510774e-01 2.020237e-01
-4.918375e-17 -1.440767e-01 1.635124e-01
-4.444290e-17 -1.348264e-01 1.259145e-01
-6.837387e-17 7.147191e-16 4.158571e-01
-7.216094e-17 7.222001e-16 4.499680e-01
-6.458680e-17 7.072381e-16 3.817462e-01
-6.079973e-17 6.997571e-16 3.476353e-01
-5.701266e-17 6.922761e-16 3.135244e-01
-5.322559e-17 6.847951e-16 2.794135e-01
-4.943852e-17 6.773141e-16 2.453026e-01
-4.565145e-17 6.698331e-16 2.111917e-01
-4.186438e-17 6.623521e-16 1.770808e-01
-3.807731e-17 6.548711e-16 1.429700e-01
1.705902e-18 7.222001e-16 -2.153654e-01
-7.146514e-18 -1.434561e-01 -2.147829e-01
1.099791e-18 7.213756e-16 -2.099060e-01
1.042899e-17 1.434561e-01 -2.147829e-01
-1.622603e-17 -2.869274e-01 -2.121633e-01
-8.431275e-18 -1.434696e-01 -2.032183e-01
-2.639851e-17 -4.410570e-01 -2.055801e-01
-1.893386e-17 -2.964133e-01 -1.930073e-01
-3.824417e-17 -6.089540e-01 -1.915223e-01
-3.092372e-17 -4.615946e-01 -1.761524e-01
-5.112921e-17 -7.755515e-01 -1.673856e-01
-4.383747e-17 -6.256208e-01 -1.503384e-01
-6.157782e-17 -8.984448e-01 -1.410802e-01
-5.458551e-17 -7.507989e-01 -1.225966e-01
-7.232389e-17 -1.012331e+00 -1.071256e-01
-6.559795e-17 -8.679703e-01 -8.805560e-02
-8.381148e-17 -1.119805e+00 -6.295457e-02
-7.726953e-17 -9.794429e-01 -4.443324e-02
9.145886e-18 1.434696e-01 -2.032183e-01
1.892684e-17 2.869274e-01 -2.121633e-01
-8.117010e-19 7.188752e-16 -1.926888e-01
-1.161936e-17 -1.517594e-01 -1.790765e-01
-2.372840e-17 -3.142268e-01 -1.596507e-01
-3.664583e-17 -4.756834e-01 -1.323857e-01
-4.766827e-17 -6.031480e-01 -1.034340e-01
-5.892206e-17 -7.236066e-01 -6.853285e-02
-7.075260e-17 -8.390788e-01 -2.568557e-02
1.738117e-17 2.964133e-01 -1.930073e-01
2.763753e-17 4.410570e-01 -2.055801e-01
6.973417e-18 1.517594e-01 -1.790765e-01
-4.162977e-18 7.147191e-16 -1.625032e-01
-1.641483e-17 -1.609377e-01 -1.409470e-01
-2.935960e-17 -3.210090e-01 -1.126714e-01
-4.068009e-17 -4.519442e-01 -8.295009e-02
-5.219887e-17 -5.768744e-01 -4.812929e-02
-6.421202e-17 -6.975305e-01 -6.497482e-03
2.562848e-17 4.615946e-01 -1.761524e-01
3.636174e-17 6.089540e-01 -1.915223e-01
1.476905e-17 3.142268e-01 -1.596507e-01
3.302424e-18 1.609377e-01 -1.409470e-01
-9.093751e-18 7.089005e-16 -1.180908e-01
-2.206736e-17 -1.602157e-01 -8.963517e-02
-3.368740e-17 -2.961513e-01 -5.997472e-02
-4.547268e-17 -4.270828e-01 -2.606473e-02
-5.766993e-17 -5.544525e-01 1.352110e-02
3.281037e-17 6.256208e-01 -1.503384e-01
4.388736e-17 7.755515e-01 -1.673856e-01
2.163245e-17 4.756834e-01 -1.323857e-01
9.968765e-18 3.210090e-01 -1.126714e-01
-2.438557e-18 1.602157e-01 -8.963517e-02
-1.530782e-17 7.070303e-16 -6.211938e-02
-2.709424e-17 -1.407917e-01 -3.363971e-02
-3.901285e-17 -2.775799e-01 -1.760409e-03
-5.126103e-17 -4.115188e-01 3.465956e-02
3.739851e-17 7.507989e-01 -1.225966e-01
4.849501e-17 8.984448e-01 -1.410802e-01
2.622631e-17 6.031480e-01 -1.034340e-01
1.468979e-17 4.519442e-01 -8.295009e-02
2.595539e-18 2.961513e-01 -5.997472e-02
-9.845168e-18 1.407917e-01 -3.363971e-02
-2.147374e-17 6.922761e-16 -6.581790e-03
-3.320145e-17 -1.377891e-01 2.302585e-02
-4.517634e-17 -2.734412e-01 5.603899e-02
4.074130e-17 8.679703e-01 -8.805560e-02
5.170164e-17 1.012331e+00 -1.071256e-01
2.973049e-17 7.236066e-01 -6.853285e-02
1.847680e-17 5.768744e-01 -4.812929e-02
6.851296e-18 4.270828e-01 -2.606473e-02
-5.005184e-18 2.775799e-01 -1.760409e-03
-1.632024e-17 1.377891e-01 2.302585e-02
-2.770139e-17 6.776620e-16 4.951192e-02
-3.924732e-17 -1.363644e-01 7.826833e-02
4.272677e-17 9.794429e-01 -4.443324e-02
5.338128e-17 1.119805e+00 -6.295457e-02
3.204702e-17 8.390788e-01 -2.568557e-02
2.124583e-17 6.975305e-01 -6.497482e-03
1.025873e-17 5.544525e-01 1.352110e-02
-8.438613e-19 4.115188e-01 3.465956e-02
-1.167573e-17 2.734412e-01 5.603899e-02
-2.254066e-17 1.363644e-01 7.826833e-02
-3.348797e-17 6.690019e-16 1.016328e-01
4.314393e-17 1.078612e+00 6.526373e-03
5.329659e-17 1.213438e+00 -1.052907e-02
3.299128e-17 9.437851e-01 2.358182e-02
2.283862e-17 8.089587e-01 4.063727e-02
1.268596e-17 6.741322e-01 5.769271e-02
2.533309e-18 5.393058e-01 7.474816e-02
-7.619347e-18 4.044793e-01 9.180361e-02
-1.777200e-17 2.696529e-01 1.088591e-01
-2.792466e-17 1.348264e-01 1.259145e-01
1.566076e-17 1.433650e+00 4.499680e-01
5.902793e-18 1.274356e+00 4.499680e-01
6.371834e-18 1.274355e+00 4.457432e-01
1.571505e-17 1.433650e+00 4.494790e-01
-3.855174e-18 1.115061e+00 4.499680e-01
-2.971380e-18 1.115061e+00 4.420074e-01
-1.361314e-17 9.557667e-01 4.499680e-01
-1.231459e-17 9.557666e-01 4.382717e-01
-2.337111e-17 7.964722e-01 4.499680e-01
-2.165781e-17 7.964722e-01 4.345359e-01
-3.312908e-17 6.371778e-01 4.499680e-01
-3.100102e-17 6.371777e-01 4.308002e-01
-4.288704e-17 4.778833e-01 4.499680e-01
-4.034423e-17 4.778833e-01 4.270644e-01
-5.264501e-17 3.185889e-01 4.499680e-01
-4.968745e-17 3.185889e-01 4.233286e-01
-6.240298e-17 1.592944e-01 4.499680e-01
-5.903066e-17 1.592944e-01 4.195929e-01
6.840408e-18 1.274348e+00 4.415185e-01
1.576881e-17 1.433641e+00 4.489901e-01
-2.087994e-18 1.115054e+00 4.340470e-01
-1.101640e-17 9.557610e-01 4.265754e-01
-1.994480e-17 7.964675e-01 4.191039e-01
-2.887320e-17 6.371740e-01 4.116324e-01
-3.780160e-17 4.778805e-01 4.041608e-01
-4.673000e-17 3.185870e-01 3.966893e-01
-5.565840e-17 1.592935e-01 3.892178e-01
9.830308e-18 1.274318e+00 4.145716e-01
1.865906e-17 1.433608e+00 4.229386e-01
1.001553e-18 1.115029e+00 4.062045e-01
-7.827202e-18 9.557388e-01 3.978375e-01
-1.665596e-17 7.964490e-01 3.894705e-01
-2.548471e-17 6.371592e-01 3.811034e-01
-3.431347e-17 4.778694e-01 3.727364e-01
-4.314222e-17 3.185796e-01 3.643694e-01
-5.197098e-17 1.592898e-01 3.560023e-01
1.620214e-17 1.274481e+00 3.572691e-01
2.535399e-17 1.433791e+00 3.627371e-01
7.050288e-18 1.115171e+00 3.518010e-01
-2.101562e-18 9.558609e-01 3.463329e-01
-1.125341e-17 7.965507e-01 3.408648e-01
-2.040526e-17 6.372406e-01 3.353967e-01
-2.955711e-17 4.779304e-01 3.299287e-01
-3.870896e-17 3.186203e-01 3.244606e-01
-4.786081e-17 1.593101e-01 3.189925e-01
2.257398e-17 1.274644e+00 2.999666e-01
3.204892e-17 1.433975e+00 3.025357e-01
1.309903e-17 1.115314e+00 2.973974e-01
3.624085e-18 9.559832e-01 2.948283e-01
-5.850861e-18 7.966526e-01 2.922592e-01
-1.532581e-17 6.373221e-01 2.896901e-01
-2.480075e-17 4.779916e-01 2.871209e-01
-3.427570e-17 3.186611e-01 2.845518e-01
-4.375065e-17 1.593305e-01 2.819827e-01
[...]
CELL_DATA 2619

SCALARS thickness0 float
LOOKUP_TABLE my_table
-6.182440e+02
-5.346530e+02
-8.689941e+02
-1.470711e+03
-9.412997e+02
-1.125919e+03
-1.361580e+03
4.131636e+03
-3.691442e+02
-6.971053e+02
3.004527e+03
3.114399e+03
3.195844e+03
2.323309e+03
2.278611e+03
2.208143e+03
2.107592e+03
1.966801e+03
1.473374e+03
1.762902e+03
2.853228e+03
4.406324e+03
4.495795e+03
4.563771e+03
4.616271e+03
4.655428e+03
3.251317e+03
3.286297e+03
4.676830e+03
4.695096e+03
3.311553e+03
2.351075e+03
1.637251e+03
1.607032e+03
1.556723e+03
1.478883e+03
1.366463e+03
1.203743e+03
9.636425e+02
6.107690e+02
8.337380e+01
4.670672e+02
1.066287e+03
2.650612e+03
4.312537e+03
7.258295e+03
7.066311e+03
7.055853e+03
7.067370e+03
7.075939e+03
7.082489e+03
7.088538e+03
7.084127e+03
7.087599e+03
7.089376e+03
4.701369e+03
3.320110e+03
2.361911e+03
1.652314e+03
1.103744e+03
1.088128e+03
1.057197e+03
1.005662e+03
9.248311e+02
8.078445e+02
6.354102e+02
3.774730e+02
-1.000496e+01
-6.072612e+02
-1.541504e+03
-3.051139e+03
-1.727000e+03
2.220575e+03
2.377209e+03
4.288894e+03
-4.759171e+03
-2.072306e+03
-7.897210e+02
-5.115083e+02
-3.237780e+02
-1.956408e+02
-1.198220e+01
-2.122134e+02
-2.407807e+02
-2.834080e+02
-3.451603e+02
-4.371044e+02
-5.676093e+02
-7.592020e+02
-1.040263e+03
-1.208053e+03
-1.236402e+03
-7.027980e+02
-3.543216e+02
-1.219773e+02
3.315609e+01
1.371607e+02
2.084941e+02
-1.099642e+02
-5.063339e+01
2.555347e+02
2.846501e+02
1.296127e+01
-1.934735e+02
-3.482704e+02
-3.601673e+02
-3.769966e+02
-4.014201e+02
-4.371014e+02
-4.868162e+02
-5.560245e+02
-6.533679e+02
-7.884186e+02
-1.272282e+03
-9.829265e+02
-1.452905e+03
-1.840314e+03
-2.075239e+03
-3.803024e+03
-2.031512e+03
-1.055636e+03
-4.509374e+02
-6.296608e+01
1.931192e+02
3.639166e+02
4.790128e+02
5.574984e+02
6.088235e+02
6.389700e+02
6.549485e+02
2.985787e+02
2.678769e+01
-1.819705e+02
-3.409031e+02
-4.608637e+02
-4.638821e+02
-4.676393e+02
-4.733047e+02
-4.797713e+02
-4.862503e+02
-4.949284e+02
-5.026123e+02
-5.074389e+02
-5.020655e+02
-4.741980e+02
-4.079536e+02
-2.874806e+02
-1.747768e+03
-3.050625e+03
-4.017224e+03
-2.726894e+03
-3.457135e+03
2.892232e+03
-5.934656e+02
2.099099e+03
1.933891e+03
1.543720e+03
-6.251838e+02
-5.691742e+02
-4.865164e+02
-3.648592e+02
-1.850535e+02
8.688347e+01
5.772730e+01
-2.024855e+02
-3.703034e+02
-4.810578e+02
-5.551207e+02
-6.039502e+02
-6.623467e+02
-6.758184e+02
-6.376248e+02
-5.802627e+02
-4.973749e+02
-3.771989e+02
-2.025426e+02
5.556123e+01
4.420388e+02
5.024815e+02
4.637238e+02
3.004218e+02
-4.732533e+01
-2.617873e+02
-3.961024e+02
-4.832224e+02
-5.390090e+02
-5.746222e+02
-5.963553e+02
-6.370560e+02
-6.144199e+02
-6.575583e+02
-6.851364e+02
-6.996378e+02
-7.047185e+02
-6.824484e+02
-6.447109e+02
-5.892648e+02
-5.117252e+02
-4.022061e+02
-2.466091e+02
-2.285789e+01
3.041279e+02
7.934159e+02
1.028777e+03
1.136432e+03
1.100299e+03
8.682724e+02
1.072688e+03
3.735708e+02
-8.912903e+00
-2.317329e+02
-3.644108e+02
-4.423581e+02
-4.886571e+02
-5.183690e+02
-5.323370e+02
-5.385546e+02
-5.426431e+02
-5.500965e+02
-5.539755e+02
-6.253622e+02
-6.678860e+02
-6.950624e+02
-7.110259e+02
-7.152811e+02
-7.120995e+02
-7.012397e+02
-6.799649e+02
-6.464238e+02
-5.980516e+02
-5.300699e+02
-4.359632e+02
-3.078182e+02
-1.329126e+02
1.126689e+02
4.643265e+02
9.821991e+02
1.759157e+03
2.709675e+03
3.338653e+03
3.546293e+03
3.296509e+03
2.031171e+03
1.824908e+03
-4.754495e+02
-5.009967e+02
-5.388523e+02
-5.787014e+02
-6.140722e+02
-6.418367e+02
-6.629149e+02
-6.503043e+02
-6.326013e+02
-6.093995e+02
-5.822685e+02
-5.551557e+02
-5.346480e+02
-5.378940e+02
-5.907706e+02
-4.824499e+02
-3.156750e+02
-3.785600e+02
-4.465389e+02
-5.104664e+02
-5.660937e+02
-6.118787e+02
-6.468265e+02
-6.726428e+02
-6.892512e+02
-6.768355e+02
-6.620589e+02
-6.416823e+02
-6.329742e+02
-6.175065e+02
-5.982353e+02
-5.756110e+02
-5.541349e+02
-5.431431e+02
-5.586086e+02
-6.306088e+02
-8.147901e+02
-1.109602e+03
-7.475394e+02
-5.633913e+02
-7.940083e+02
-2.770897e+02
-3.027444e+02
5.968660e+02
3.120874e+02
7.885825e+01
-1.091648e+02
-2.591170e+02
-3.790377e+02
-4.737809e+02
-5.481082e+02
-6.044207e+02
-6.464474e+02
-6.756498e+02
-6.944544e+02
-7.033110e+02
-6.963962e+02
-6.842006e+02
-6.668299e+02
-6.454579e+02
-6.212323e+02
-6.181602e+02
-6.102166e+02
-5.972441e+02
-5.794257e+02
-5.581872e+02
-5.383123e+02
-5.262218e+02
-5.372382e+02
-5.985999e+02
-7.616664e+02
-1.121065e+03
-1.850984e+03
-1.219462e+03
-2.029859e+03
-1.850152e+03
-1.312644e+03
-4.673091e+02
-2.861024e+02
-3.556206e+02
-4.121890e+02
-4.556288e+02
-4.871609e+02
-5.095787e+02
-5.238613e+02
-4.913346e+02
-4.761355e+02
-4.512810e+02
-4.142356e+02
-3.603305e+02
-2.851427e+02
-1.816256e+02
-3.943301e+01
-2.029562e+02
-3.658217e+02
-3.894551e+02
-4.254501e+02
-4.623734e+02
-4.954977e+02
-5.229483e+02
-5.420010e+02
-5.553309e+02
-5.626232e+02
-5.317289e+02
-4.991777e+02
-4.683205e+02
-4.602655e+02
-4.445569e+02
-4.177876e+02
-3.758943e+02
-3.145157e+02
-2.232090e+02
-9.179935e+01
9.906387e+01
3.902960e+02
4.729152e+02
1.647244e+02
-1.037144e+02
1.631101e+01
-3.733004e+02
-4.477976e+02
-1.369206e+03
-8.491683e+02
-6.040344e+02
-5.039766e+02
-4.778044e+02
-4.856129e+02
-5.064352e+02
-5.306672e+02
-5.532960e+02
-5.714443e+02
-5.841063e+02
-5.914213e+02
-5.937244e+02
-5.641613e+02
-5.327608e+02
-4.997611e+02
-4.691902e+02
-4.491528e+02
-4.478189e+02
-4.395735e+02
-4.237892e+02
-3.955273e+02
-3.506125e+02
-2.842805e+02
-1.832064e+02
-3.218444e+01
1.907547e+02
5.375373e+02
1.103904e+03
2.002124e+03
8.543310e+02
1.576396e+03
9.224439e+02
1.347000e+02
-6.701290e+02
9.575646e+02
-4.886816e+02
-2.776053e+02
-2.631676e+02
-2.382740e+02
-1.964514e+02
-1.339651e+02
1.640635e+01
-1.052760e+02
-1.914660e+02
-2.481612e+02
-2.838675e+02
-3.052077e+02
-3.148619e+02
-2.815966e+02
-2.504553e+02
-2.512604e+02
-2.456982e+02
-2.332384e+02
-2.101191e+02
-1.782865e+02
-1.389525e+02
-4.750278e+01
1.959583e+02
2.511813e+02
3.362634e+01
-1.106179e+02
-2.085190e+02
-2.743754e+02
-3.163797e+02
-3.404125e+02
-3.523023e+02
-3.562170e+02
-3.165283e+02
-2.803511e+02
-2.465876e+02
-2.149771e+02
-2.212031e+02
-2.251193e+02
-2.267345e+02
-2.241558e+02
-2.218054e+02
-2.255943e+02
-2.465493e+02
-9.005362e+01
7.676404e+01
-1.087359e+01
5.827078e+02
2.735553e+02
4.792121e+02
5.876141e+02
8.974199e+02
1.106487e+03
1.190051e+03
6.070074e+02
2.427806e+02
9.057387e+00
-1.453373e+02
-2.478075e+02
-3.163427e+02
-3.615016e+02
-3.883304e+02
-4.025325e+02
-4.090872e+02
-4.088198e+02
-3.551257e+02
-3.151216e+02
-2.782003e+02
-2.433048e+02
-2.103412e+02
-1.826725e+02
-1.892387e+02
-1.988412e+02
-2.072887e+02
-2.150636e+02
-2.254643e+02
-2.417207e+02
-2.814141e+02
-3.669144e+02
-9.363709e+02
-5.422820e+02
-3.037148e+02
-4.290082e+02
5.923734e+01
1.436254e+03
1.882469e+03
2.107385e+03
-1.094991e+03
2.110355e+02
-1.089307e+02
-9.617692e+01
-8.769553e+01
-7.837863e+01
-4.028047e+01
-4.791080e+01
-5.320102e+01
-6.088340e+01
-8.333762e+01
-1.432950e+02
-2.246003e+02
-2.796391e+02
-1.962184e+02
-1.579072e+02
-1.422657e+02
-1.312709e+02
-1.198817e+02
-1.076990e+02
-6.725518e+01
-2.935259e+01
7.628012e+00
-1.974456e+00
-5.758196e+00
-4.948695e+00
9.885811e-01
5.082374e+00
-3.893842e+01
5.687057e-01
-1.357899e+02
-2.506625e+02
-7.033030e+02
-3.848588e+02
-4.387376e+02
-1.187076e+03
-6.955579e+02
-4.366874e+02
-3.047945e+02
-2.394274e+02
-2.059820e+02
-1.884265e+02
-1.774180e+02
-1.655730e+02
-1.531031e+02
-1.452538e+02
-9.953560e+01
-5.908696e+01
-2.170309e+01
1.429896e+01
4.592309e+01
3.885041e+01
3.177521e+01
3.350150e+01
4.739621e+01
7.438381e+01
1.213454e+02
1.874964e+02
2.552278e+02
-1.330852e+02
-5.193068e+02
-1.174583e+03
-7.155651e+02
3.547629e+02
5.646588e+02
5.647387e+02
1.075668e+02
1.156789e+02
1.526977e+02
1.416369e+02
1.042957e+02
9.315129e+01
9.466190e+01
1.097712e+02
1.122877e+02
1.033346e+02
1.032037e+02
1.281676e+02
3.518949e+02
2.047073e+02
2.431098e+02
2.222780e+02
3.756789e+02
4.211577e+02
8.433135e+02
3.918570e+02
2.504326e+02
1.553612e+02
9.792101e+01
7.162221e+01
6.411361e+01
6.898349e+01
7.588511e+01
9.986931e+01
1.153003e+02
1.202202e+02
1.133356e+02
9.892829e+01
7.880401e+01
6.115762e+01
5.625362e+01
8.887110e+01
1.939836e+02
5.627176e+02
7.336899e+02
8.169899e+02
5.922023e+02
-7.264468e+02
-5.526107e+02
-7.705538e+02
-2.300715e+02
-3.977738e+02
-4.568414e+02
-5.566997e+01
-1.915809e+00
5.657801e+01
2.809079e+01
2.068203e+00
-9.835766e+01
-2.045861e+02
-9.549036e+01
-2.022740e+02
-1.038694e+02
-8.209148e+01
-4.970481e+01
-4.916591e+00
4.259542e+01
8.008221e+01
1.014248e+02
8.583130e+01
6.607089e+01
4.780338e+01
3.699369e+01
-1.230661e+01
-1.187967e+02
-2.982196e+02
-5.458232e+02
-2.726122e+02
-8.149555e+02
-7.896137e+02
-6.372375e+02
-3.946311e+02
-5.056861e+02
-3.672398e+02
-1.016809e+02
2.937590e+00
-8.916141e+01
-2.222412e+02
-5.150073e+02
-2.836928e+02
-1.162204e+02
-1.228338e+01
3.652549e+01
4.966541e+01
6.792160e+01
3.585880e+01
-2.123410e+01
2.869509e+02
1.363669e+02
8.675010e+01
8.832122e+01
1.012668e+02
9.541998e+01
1.894230e+02
2.225659e+02
1.119735e+02
4.014774e+01
-7.953053e+01
-2.674499e+02
-2.665558e+02
-5.391913e+00
1.629461e+02
1.118901e+04
1.209842e+04
1.292560e+04
1.354751e+04
1.399106e+04
1.429172e+04
1.448371e+04
1.458068e+04
1.463307e+04
1.464933e+04
-6.152850e+02
-5.343652e+02
-8.652718e+02
-1.470080e+03
-9.342588e+02
-1.121721e+03
-1.357520e+03
4.130318e+03
-3.699078e+02
-6.977821e+02
3.004576e+03
3.113976e+03
3.195131e+03
2.322634e+03
2.278350e+03
2.207990e+03
2.107402e+03
1.966524e+03
1.472518e+03
1.762534e+03
2.853525e+03
4.406823e+03
4.495727e+03
4.563147e+03
4.615345e+03
4.654875e+03
3.250413e+03
3.284975e+03
4.676218e+03
4.693912e+03
3.310358e+03
2.350391e+03
1.636717e+03
1.606813e+03
1.556591e+03
1.478848e+03
1.366371e+03
1.203465e+03
9.632469e+02
6.102237e+02
8.279910e+01
4.662757e+02
1.065281e+03
2.649903e+03
4.312827e+03
7.258611e+03
7.066615e+03
7.055926e+03
7.067104e+03
7.075407e+03
7.081944e+03
7.088264e+03
7.084059e+03
7.087629e+03
7.089491e+03
4.700637e+03
3.319602e+03
2.361696e+03
1.652002e+03
1.103485e+03
1.087778e+03
1.057102e+03
1.005680e+03
9.247847e+02
8.077538e+02
6.352317e+02
3.772288e+02
-1.031645e+01
-6.076879e+02
-1.542218e+03
-3.051970e+03
-1.727627e+03
2.219607e+03
2.375711e+03
4.287929e+03
-4.758626e+03
-2.071568e+03
-7.898831e+02
-5.116184e+02
-3.238823e+02
-1.956816e+02
-1.199385e+01
-2.121521e+02
-2.407265e+02
-2.833640e+02
-3.451667e+02
-4.371400e+02
-5.676472e+02
-7.592830e+02
-1.040326e+03
-1.208303e+03
-1.236911e+03
-7.029943e+02
-3.544655e+02
-1.221209e+02
3.304292e+01
1.370899e+02
2.084442e+02
-1.099592e+02
-5.064090e+01
2.554899e+02
2.846188e+02
1.295832e+01
-1.934306e+02
-3.481147e+02
-3.599663e+02
-3.768004e+02
-4.012731e+02
-4.370045e+02
-4.867487e+02
-5.559523e+02
-6.533391e+02
-7.884880e+02
-1.271728e+03
-9.828073e+02
-1.452645e+03
-1.840211e+03
-2.075945e+03
-3.803873e+03
-2.032328e+03
-1.056060e+03
-4.511849e+02
-6.315395e+01
1.929476e+02
3.638026e+02
4.789404e+02
5.574577e+02
6.087046e+02
6.387865e+02
6.548482e+02
2.985697e+02
2.678933e+01
-1.819483e+02
-3.408359e+02
-4.608000e+02
-4.637257e+02
-4.672940e+02
-4.727984e+02
-4.792781e+02
-4.859325e+02
-4.947950e+02
-5.024402e+02
-5.072378e+02
-5.019449e+02
-4.741592e+02
-4.076501e+02
-2.873329e+02
-1.747421e+03
-3.049870e+03
-4.016573e+03
-2.726332e+03
-3.457231e+03
2.892026e+03
-5.928577e+02
2.098836e+03
1.933725e+03
1.543711e+03
-6.254740e+02
-5.692757e+02
-4.864712e+02
-3.648052e+02
-1.849661e+02
8.692074e+01
5.740527e+01
-2.028147e+02
-3.706701e+02
-4.814274e+02
-5.554094e+02
-6.042994e+02
-6.625734e+02
-6.760070e+02
-6.376768e+02
-5.802630e+02
-4.972832e+02
-3.770421e+02
-2.023543e+02
5.570333e+01
4.420769e+02
5.024120e+02
4.634996e+02
3.002851e+02
-4.757236e+01
-2.621247e+02
-3.964219e+02
-4.834148e+02
-5.391550e+02
-5.745857e+02
-5.959685e+02
-6.371638e+02
-6.141920e+02
-6.573515e+02
-6.852745e+02
-6.998650e+02
-7.048556e+02
-6.825609e+02
-6.447390e+02
-5.892681e+02
-5.117131e+02
-4.021276e+02
-2.464997e+02
-2.275407e+01
3.041884e+02
7.934567e+02
1.028737e+03
1.136284e+03
1.100134e+03
8.682279e+02
1.072708e+03
3.735874e+02
-8.839894e+00
-2.316125e+02
-3.643102e+02
-4.422819e+02
-4.884533e+02
-5.180171e+02
-5.318077e+02
-5.378720e+02
-5.421451e+02
-5.500026e+02
-5.540232e+02
-6.254099e+02
-6.678707e+02
-6.951091e+02
-7.111117e+02
-7.153478e+02
-7.121353e+02
-7.012959e+02
-6.800054e+02
-6.464497e+02
-5.980529e+02
-5.300657e+02
-4.359688e+02
-3.078069e+02
-1.328712e+02
1.127180e+02
4.643785e+02
9.822746e+02
1.759328e+03
2.709757e+03
3.338576e+03
3.546089e+03
3.296331e+03
2.030990e+03
1.824844e+03
-4.754662e+02
-5.010646e+02
-5.389719e+02
-5.787914e+02
-6.141956e+02
-6.419464e+02
-6.629531e+02
-6.503723e+02
-6.327082e+02
-6.095499e+02
-5.823838e+02
-5.552586e+02
-5.347561e+02
-5.379408e+02
-5.908060e+02
-4.824486e+02
-3.156809e+02
-3.786458e+02
-4.466480e+02
-5.105828e+02
-5.662186e+02
-6.119599e+02
-6.468873e+02
-6.726741e+02
-6.892552e+02
-6.768323e+02
-6.621015e+02
-6.417136e+02
-6.330236e+02
-6.175839e+02
-5.983264e+02
-5.756017e+02
-5.541177e+02
-5.432575e+02
-5.586521e+02
-6.306892e+02
-8.148813e+02
-1.109588e+03
-7.475265e+02
-5.633096e+02
-7.939327e+02
-2.769901e+02
-3.026525e+02
5.970541e+02
3.121521e+02
7.892509e+01
-1.091455e+02
-2.591252e+02
-3.790557e+02
-4.738057e+02
-5.481212e+02
-6.044249e+02
-6.464553e+02
-6.756612e+02
-6.944673e+02
-7.033217e+02
-6.963910e+02
-6.841984e+02
-6.668436e+02
-6.454776e+02
-6.212323e+02
-6.181542e+02
-6.101980e+02
-5.971707e+02
-5.792946e+02
-5.581055e+02
-5.382932e+02
-5.261745e+02
-5.373296e+02
-5.988377e+02
-7.619254e+02
-1.121313e+03
-1.851436e+03
-1.219552e+03
-2.030099e+03
-1.850213e+03
-1.312566e+03
-4.671602e+02
-2.867546e+02
-3.559391e+02
-4.122566e+02
-4.556963e+02
-4.873524e+02
-5.095543e+02
-5.237552e+02
-4.913215e+02
-4.761383e+02
-4.513088e+02
-4.143865e+02
-3.604828e+02
-2.853275e+02
-1.818931e+02
-3.996175e+01
-2.039474e+02
-3.666773e+02
-3.901370e+02
-4.259904e+02
-4.625025e+02
-4.954862e+02
-5.230444e+02
-5.419045e+02
-5.551768e+02
-5.624929e+02
-5.316234e+02
-4.991179e+02
-4.681825e+02
-4.600797e+02
-4.443821e+02
-4.175693e+02
-3.759785e+02
-3.144621e+02
-2.233027e+02
-9.222968e+01
9.832611e+01
3.892780e+02
4.720874e+02
1.637727e+02
-1.046356e+02
1.555211e+01
-3.740800e+02
-4.483634e+02
-1.369676e+03
-8.495477e+02
-6.045077e+02
-5.043373e+02
-4.779422e+02
-4.855435e+02
-5.062154e+02
-5.304230e+02
-5.530027e+02
-5.711395e+02
-5.839313e+02
-5.913274e+02
-5.936830e+02
-5.641073e+02
-5.327075e+02
-4.997169e+02
-4.691474e+02
-4.489826e+02
-4.473654e+02
-4.386692e+02
-4.226120e+02
-3.951861e+02
-3.503196e+02
-2.823226e+02
-1.815916e+02
-3.307051e+01
1.886230e+02
5.354948e+02
1.103057e+03
2.001839e+03
8.535726e+02
1.576026e+03
9.218793e+02
1.341023e+02
-6.706310e+02
9.629473e+02
-4.867274e+02
-2.754528e+02
-2.591971e+02
-2.330078e+02
-1.908424e+02
-1.301068e+02
8.244744e+00
-1.143535e+02
-1.975187e+02
-2.522911e+02
-2.862266e+02
-3.056100e+02
-3.144099e+02
-2.819033e+02
-2.522968e+02
-2.506545e+02
-2.424757e+02
-2.282149e+02
-2.038323e+02
-1.711543e+02
-1.305051e+02
-4.379031e+01
1.928975e+02
2.472421e+02
3.067438e+01
-1.167460e+02
-2.136606e+02
-2.761053e+02
-3.162912e+02
-3.396435e+02
-3.507081e+02
-3.554677e+02
-3.166833e+02
-2.813625e+02
-2.483741e+02
-2.176940e+02
-2.260618e+02
-2.304818e+02
-2.312338e+02
-2.299431e+02
-2.270580e+02
-2.285422e+02
-2.482610e+02
-7.712641e+01
8.741874e+01
-1.982964e+00
5.868201e+02
2.828463e+02
4.807593e+02
5.843913e+02
9.019611e+02
1.106864e+03
1.188293e+03
6.040103e+02
2.414782e+02
9.588211e+00
-1.441164e+02
-2.460454e+02
-3.138836e+02
-3.588238e+02
-3.857179e+02
-4.005926e+02
-4.081925e+02
-4.085669e+02
-3.549842e+02
-3.151557e+02
-2.784578e+02
-2.438600e+02
-2.111424e+02
-1.833110e+02
-1.914115e+02
-2.023578e+02
-2.114131e+02
-2.206283e+02
-2.295669e+02
-2.457407e+02
-2.882553e+02
-3.717533e+02
-9.409155e+02
-5.456720e+02
-3.017929e+02
-4.283694e+02
6.095591e+01
1.441046e+03
1.884300e+03
2.107124e+03
-1.093976e+03
2.166855e+02
-1.212840e+02
-1.032423e+02
-9.189617e+01
-8.042528e+01
-4.062321e+01
-4.639021e+01
-5.031446e+01
-5.878863e+01
-8.176694e+01
-1.558472e+02
-2.305836e+02
-2.840889e+02
-2.055611e+02
-1.674821e+02
-1.466984e+02
-1.336458e+02
-1.200602e+02
-1.069135e+02
-6.757558e+01
-3.019398e+01
5.839640e+00
-4.343790e+00
-6.343027e+00
-2.001913e+00
4.443378e+00
9.032182e+00
-3.564935e+01
4.997766e+00
-1.360426e+02
-2.500325e+02
-7.040176e+02
-3.870061e+02
-4.425014e+02
-1.190920e+03
-7.000626e+02
-4.409117e+02
-3.085964e+02
-2.391931e+02
-2.052132e+02
-1.886996e+02
-1.762833e+02
-1.644369e+02
-1.528111e+02
-1.452388e+02
-9.919876e+01
-5.893802e+01
-2.182779e+01
1.383517e+01
4.553431e+01
3.722480e+01
2.933572e+01
3.183050e+01
4.465831e+01
6.854140e+01
1.190694e+02
1.921979e+02
2.605120e+02
-1.298460e+02
-5.191545e+02
-1.175170e+03
-7.169507e+02
3.541199e+02
5.663527e+02
5.671378e+02
1.063911e+02
1.167889e+02
1.531076e+02
1.363496e+02
1.051417e+02
9.546910e+01
9.647471e+01
1.089353e+02
1.100372e+02
1.003143e+02
1.031433e+02
1.322863e+02
3.514974e+02
2.060905e+02
2.394962e+02
2.162552e+02
3.755047e+02
4.188782e+02
8.448072e+02
3.952289e+02
2.515214e+02
1.499079e+02
9.490260e+01
7.398309e+01
6.689191e+01
7.038730e+01
7.632030e+01
1.005737e+02
1.153302e+02
1.196158e+02
1.128091e+02
9.717780e+01
7.673031e+01
5.938529e+01
5.657572e+01
9.262049e+01
1.959948e+02
5.634863e+02
7.352632e+02
8.182727e+02
5.941550e+02
-7.277823e+02
-5.537319e+02
-7.720312e+02
-2.280103e+02
-3.992049e+02
-4.578528e+02
-5.784829e+01
-4.399278e+00
5.681720e+01
2.665551e+01
5.181041e-01
-9.971162e+01
-2.057738e+02
-9.832698e+01
-2.022848e+02
-1.002243e+02
-7.848441e+01
-5.000794e+01
-7.552503e+00
4.158511e+01
8.050279e+01
1.017505e+02
8.616590e+01
6.554758e+01
4.705063e+01
3.646719e+01
-1.331271e+01
-1.193780e+02
-2.981574e+02
-5.463596e+02
-2.731562e+02
-8.163551e+02
-7.910655e+02
-6.382123e+02
-3.932013e+02
-5.064261e+02
-3.672198e+02
-1.013078e+02
2.104924e+00
-9.011649e+01
-2.224446e+02
-5.153218e+02
-2.837499e+02
-1.166347e+02
-1.301752e+01
3.624508e+01
4.941452e+01
6.749442e+01
3.452258e+01
-2.191092e+01
2.892951e+02
1.364677e+02
8.578027e+01
8.790580e+01
1.010360e+02
9.503170e+01
1.902050e+02
2.239214e+02
1.120737e+02
3.979791e+01
-7.936456e+01
-2.678768e+02
-2.656911e+02
-4.725365e+00
1.631695e+02
1.118965e+04
1.209881e+04
1.292582e+04
1.354750e+04
1.399096e+04
1.429158e+04
1.448358e+04
1.458065e+04
1.463321e+04
1.464943e+04
0.000000e+00
0.000000e+00
0.000000e+00
0.000000e+00
0.000000e+00
0.000000e+00
0.000000e+00
0.000000e+00
0.000000e+00
0.000000e+00
0.000000e+00
0.000000e+00
0.000000e+00
0.000000e+00
0.000000e+00
0.000000e+00
0.000000e+00
0.000000e+00
0.000000e+00
0.000000e+00
0.000000e+00
0.000000e+00
0.000000e+00
0.000000e+00
0.000000e+00
0.000000e+00
0.000000e+00
0.000000e+00
0.000000e+00
0.000000e+00
0.000000e+00
0.000000e+00
0.000000e+00
0.000000e+00
0.000000e+00
0.000000e+00
0.000000e+00
0.000000e+00
0.000000e+00
0.000000e+00
0.000000e+00
0.000000e+00
0.000000e+00
0.000000e+00
0.000000e+00
0.000000e+00
0.000000e+00
0.000000e+00
0.000000e+00
0.000000e+00
0.000000e+00
0.000000e+00
0.000000e+00
0.000000e+00
0.000000e+00
0.000000e+00
0.000000e+00
0.000000e+00
0.000000e+00
0.000000e+00
0.000000e+00
0.000000e+00
0.000000e+00
0.000000e+00
0.000000e+00
0.000000e+00
0.000000e+00
0.000000e+00
0.000000e+00
0.000000e+00
0.000000e+00
0.000000e+00
0.000000e+00
0.000000e+00
0.000000e+00
0.000000e+00
0.000000e+00
0.000000e+00
0.000000e+00
0.000000e+00
0.000000e+00
0.000000e+00
0.000000e+00
0.000000e+00
0.000000e+00
0.000000e+00
0.000000e+00
0.000000e+00
0.000000e+00
0.000000e+00
0.000000e+00
0.000000e+00
0.000000e+00
0.000000e+00
0.000000e+00
0.000000e+00
0.000000e+00
0.000000e+00
0.000000e+00
0.000000e+00
0.000000e+00
0.000000e+00
0.000000e+00
0.000000e+00
0.000000e+00
0.000000e+00
0.000000e+00
0.000000e+00
0.000000e+00
0.000000e+00
0.000000e+00
0.000000e+00
0.000000e+00
0.000000e+00
0.000000e+00
0.000000e+00
0.000000e+00
0.000000e+00
0.000000e+00
0.000000e+00
0.000000e+00
0.000000e+00
0.000000e+00
0.000000e+00
0.000000e+00
0.000000e+00
0.000000e+00
0.000000e+00
0.000000e+00